ITEM: TIMESTEP
0
ITEM: NUMBER OF ATOMS
14
ITEM: BOX BOUNDS pp pp pp
0.0 2.
0.0 1.
0.0 1.
ITEM: ATOMS id mol type mass q x y z
1 1 1 1. 0. 0.0 0.0 0.0
2 2 1 1. 0. 1.0 0.0 0.0
3 3 1 1. 0. 1.0 1.0 0.0
4 4 1 1. 0. 1.0 1.0 1.0
5 5 1 1. 0. 0.0 1.0 1.0
6 6 1 1. 0. 1.0 0.0 1.0
7 7 1 1. 0. 0.0 0.0 1.0
8 8 1 1. 0. 0.0 1.0 0.0
9 9 1 1. 0. 0.5 0.5 0.5
10 10 1 1. 0. 1.5 0.5 0.5
11 11 1 1. 0. 2.0 0.0 0.0
12 12 1 1. 0. 2.0 1.0 0.0
13 13 1 1. 0. 2.0 0.0 1.0
14 14 1 1. 0. 2.0 1.0 1.0
